# vtk DataFile Version 2.0
My Test Plane
ASCII
DATASET POLYDATA
POINTS 654 float
-6.11936 -2.07846 0.0
-6.11936 -2.07846 1.01188
-6.11936 -2.07846 2.02376
-6.11936 -2.07846 3.03565
-6.11936 -2.07846 4.04753
-6.11936 -2.07846 5.05941
-6.11936 -2.07846 6.07129
-6.11936 -2.07846 7.08317
-6.11936 -2.07846 8.09506
-6.11936 -2.07846 9.10694
-6.11936 -2.07846 10.1188
-6.11936 -2.07846 11.1307
-6.11936 -2.07846 12.1426
-5.11475 -2.07846 0.0
-5.11475 -2.07846 1.01188
-5.11475 -2.07846 2.02376
-5.11475 -2.07846 3.03565
-5.11475 -2.07846 4.04753
-5.11475 -2.07846 5.05941
-5.11475 -2.07846 6.07129
-5.11475 -2.07846 7.08317
-5.11475 -2.07846 8.09506
-5.11475 -2.07846 9.10694
-5.11475 -2.07846 10.1188
-5.11475 -2.07846 11.1307
-5.11475 -2.07846 12.1426
-4.11015 -2.07846 0.0
-4.11015 -2.07846 1.01188
-4.11015 -2.07846 2.02376
-4.11015 -2.07846 3.03565
-4.11015 -2.07846 4.04753
-4.11015 -2.07846 5.05941
-4.11015 -2.07846 6.07129
-4.11015 -2.07846 7.08317
-4.11015 -2.07846 8.09506
-4.11015 -2.07846 9.10694
-4.11015 -2.07846 10.1188
-4.11015 -2.07846 11.1307
-4.11015 -2.07846 12.1426
-3.10554 -2.07846 0.0
-3.10554 -2.07846 1.01188
-3.10554 -2.07846 2.02376
-3.10554 -2.07846 3.03565
-3.10554 -2.07846 4.04753
-3.10554 -2.07846 5.05941
-3.10554 -2.07846 6.07129
-3.10554 -2.07846 7.08317
-3.10554 -2.07846 8.09506
-3.10554 -2.07846 9.10694
-3.10554 -2.07846 10.1188
-3.10554 -2.07846 11.1307
-3.10554 -2.07846 12.1426
-2.10093 -2.07846 0.0
-2.10093 -2.07846 1.01188
-2.10093 -2.07846 2.02376
-2.10093 -2.07846 3.03565
-2.10093 -2.07846 4.04753
-2.10093 -2.07846 5.05941
-2.10093 -2.07846 6.07129
-2.10093 -2.07846 7.08317
-2.10093 -2.07846 8.09506
-2.10093 -2.07846 9.10694
-2.10093 -2.07846 10.1188
-2.10093 -2.07846 11.1307
-2.10093 -2.07846 12.1426
-1.09632 -2.07846 0.0
-1.09632 -2.07846 1.01188
-1.09632 -2.07846 2.02376
-1.09632 -2.07846 3.03565
-1.09632 -2.07846 4.04753
-1.09632 -2.07846 5.05941
-1.09632 -2.07846 6.07129
-1.09632 -2.07846 7.08317
-1.09632 -2.07846 8.09506
-1.09632 -2.07846 9.10694
-1.09632 -2.07846 10.1188
-1.09632 -2.07846 11.1307
-1.09632 -2.07846 12.1426
-0.0917157 -2.07846 0.0
-0.0917157 -2.07846 1.01188
-0.0917157 -2.07846 2.02376
-0.0917157 -2.07846 3.03565
-0.0917157 -2.07846 4.04753
-0.0917157 -2.07846 5.05941
-0.0917157 -2.07846 6.07129
-0.0917157 -2.07846 7.08317
-0.0917157 -2.07846 8.09506
-0.0917157 -2.07846 9.10694
-0.0917157 -2.07846 10.1188
-0.0917157 -2.07846 11.1307
-0.0917157 -2.07846 12.1426
0.912892 -2.07846 0.0
0.912892 -2.07846 1.01188
0.912892 -2.07846 2.02376
0.912892 -2.07846 3.03565
0.912892 -2.07846 4.04753
0.912892 -2.07846 5.05941
0.912892 -2.07846 6.07129
0.912892 -2.07846 7.08317
0.912892 -2.07846 8.09506
0.912892 -2.07846 9.10694
0.912892 -2.07846 10.1188
0.912892 -2.07846 11.1307
0.912892 -2.07846 12.1426
1.91750 -2.07846 0.0
1.91750 -2.07846 1.01188
1.91750 -2.07846 2.02376
1.91750 -2.07846 3.03565
1.91750 -2.07846 4.04753
1.91750 -2.07846 5.05941
1.91750 -2.07846 6.07129
1.91750 -2.07846 7.08317
1.91750 -2.07846 8.09506
1.91750 -2.07846 9.10694
1.91750 -2.07846 10.1188
1.91750 -2.07846 11.1307
1.91750 -2.07846 12.1426
2.92211 -2.07846 0.0
2.92211 -2.07846 1.01188
2.92211 -2.07846 2.02376
2.92211 -2.07846 3.03565
2.92211 -2.07846 4.04753
2.92211 -2.07846 5.05941
2.92211 -2.07846 6.07129
2.92211 -2.07846 7.08317
2.92211 -2.07846 8.09506
2.92211 -2.07846 9.10694
2.92211 -2.07846 10.1188
2.92211 -2.07846 11.1307
2.92211 -2.07846 12.1426
3.92671 -2.07846 0.0
3.92671 -2.07846 1.01188
3.92671 -2.07846 2.02376
3.92671 -2.07846 3.03565
3.92671 -2.07846 4.04753
3.92671 -2.07846 5.05941
3.92671 -2.07846 6.07129
3.92671 -2.07846 7.08317
3.92671 -2.07846 8.09506
3.92671 -2.07846 9.10694
3.92671 -2.07846 10.1188
3.92671 -2.07846 11.1307
3.92671 -2.07846 12.1426
4.93132 -2.07846 0.0
4.93132 -2.07846 1.01188
4.93132 -2.07846 2.02376
4.93132 -2.07846 3.03565
4.93132 -2.07846 4.04753
4.93132 -2.07846 5.05941
4.93132 -2.07846 6.07129
4.93132 -2.07846 7.08317
4.93132 -2.07846 8.09506
4.93132 -2.07846 9.10694
4.93132 -2.07846 10.1188
4.93132 -2.07846 11.1307
4.93132 -2.07846 12.1426
5.03132 -1.97846 0.0
5.03132 -1.97846 1.01188
5.03132 -1.97846 2.02376
5.03132 -1.97846 3.03565
5.03132 -1.97846 4.04753
5.03132 -1.97846 5.05941
5.03132 -1.97846 6.07129
5.03132 -1.97846 7.08317
5.03132 -1.97846 8.09506
5.03132 -1.97846 9.10694
5.03132 -1.97846 10.1188
5.03132 -1.97846 11.1307
5.03132 -1.97846 12.1426
5.03132 -0.879738 0.0
5.03132 -0.879738 1.01188
5.03132 -0.879738 2.02376
5.03132 -0.879738 3.03565
5.03132 -0.879738 4.04753
5.03132 -0.879738 5.05941
5.03132 -0.879738 6.07129
5.03132 -0.879738 7.08317
5.03132 -0.879738 8.09506
5.03132 -0.879738 9.10694
5.03132 -0.879738 10.1188
5.03132 -0.879738 11.1307
5.03132 -0.879738 12.1426
5.03132 0.218984 0.0
5.03132 0.218984 1.01188
5.03132 0.218984 2.02376
5.03132 0.218984 3.03565
5.03132 0.218984 4.04753
5.03132 0.218984 5.05941
5.03132 0.218984 6.07129
5.03132 0.218984 7.08317
5.03132 0.218984 8.09506
5.03132 0.218984 9.10694
5.03132 0.218984 10.1188
5.03132 0.218984 11.1307
5.03132 0.218984 12.1426
5.03132 1.31771 0.0
5.03132 1.31771 1.01188
5.03132 1.31771 2.02376
5.03132 1.31771 3.03565
5.03132 1.31771 4.04753
5.03132 1.31771 5.05941
5.03132 1.31771 6.07129
5.03132 1.31771 7.08317
5.03132 1.31771 8.09506
5.03132 1.31771 9.10694
5.03132 1.31771 10.1188
5.03132 1.31771 11.1307
5.03132 1.31771 12.1426
5.03132 2.41643 0.0
5.03132 2.41643 1.01188
5.03132 2.41643 2.02376
5.03132 2.41643 3.03565
5.03132 2.41643 4.04753
5.03132 2.41643 5.05941
5.03132 2.41643 6.07129
5.03132 2.41643 7.08317
5.03132 2.41643 8.09506
5.03132 2.41643 9.10694
5.03132 2.41643 10.1188
5.03132 2.41643 11.1307
5.03132 2.41643 12.1426
5.03132 3.51515 0.0
5.03132 3.51515 1.01188
5.03132 3.51515 2.02376
5.03132 3.51515 3.03565
5.03132 3.51515 4.04753
5.03132 3.51515 5.05941
5.03132 3.51515 6.07129
5.03132 3.51515 7.08317
5.03132 3.51515 8.09506
5.03132 3.51515 9.10694
5.03132 3.51515 10.1188
5.03132 3.51515 11.1307
5.03132 3.51515 12.1426
5.03132 4.61387 0.0
5.03132 4.61387 1.01188
5.03132 4.61387 2.02376
5.03132 4.61387 3.03565
5.03132 4.61387 4.04753
5.03132 4.61387 5.05941
5.03132 4.61387 6.07129
5.03132 4.61387 7.08317
5.03132 4.61387 8.09506
5.03132 4.61387 9.10694
5.03132 4.61387 10.1188
5.03132 4.61387 11.1307
5.03132 4.61387 12.1426
5.03132 5.71260 0.0
5.03132 5.71260 1.01188
5.03132 5.71260 2.02376
5.03132 5.71260 3.03565
5.03132 5.71260 4.04753
5.03132 5.71260 5.05941
5.03132 5.71260 6.07129
5.03132 5.71260 7.08317
5.03132 5.71260 8.09506
5.03132 5.71260 9.10694
5.03132 5.71260 10.1188
5.03132 5.71260 11.1307
5.03132 5.71260 12.1426
5.03132 6.81132 0.0
5.03132 6.81132 1.01188
5.03132 6.81132 2.02376
5.03132 6.81132 3.03565
5.03132 6.81132 4.04753
5.03132 6.81132 5.05941
5.03132 6.81132 6.07129
5.03132 6.81132 7.08317
5.03132 6.81132 8.09506
5.03132 6.81132 9.10694
5.03132 6.81132 10.1188
5.03132 6.81132 11.1307
5.03132 6.81132 12.1426
4.93132 6.91132 0.0
4.93132 6.91132 1.01188
4.93132 6.91132 2.02376
4.93132 6.91132 3.03565
4.93132 6.91132 4.04753
4.93132 6.91132 5.05941
4.93132 6.91132 6.07129
4.93132 6.91132 7.08317
4.93132 6.91132 8.09506
4.93132 6.91132 9.10694
4.93132 6.91132 10.1188
4.93132 6.91132 11.1307
4.93132 6.91132 12.1426
3.92671 6.91132 0.0
3.92671 6.91132 1.01188
3.92671 6.91132 2.02376
3.92671 6.91132 3.03565
3.92671 6.91132 4.04753
3.92671 6.91132 5.05941
3.92671 6.91132 6.07129
3.92671 6.91132 7.08317
3.92671 6.91132 8.09506
3.92671 6.91132 9.10694
3.92671 6.91132 10.1188
3.92671 6.91132 11.1307
3.92671 6.91132 12.1426
2.92211 6.91132 0.0
2.92211 6.91132 1.01188
2.92211 6.91132 2.02376
2.92211 6.91132 3.03565
2.92211 6.91132 4.04753
2.92211 6.91132 5.05941
2.92211 6.91132 6.07129
2.92211 6.91132 7.08317
2.92211 6.91132 8.09506
2.92211 6.91132 9.10694
2.92211 6.91132 10.1188
2.92211 6.91132 11.1307
2.92211 6.91132 12.1426
1.91750 6.91132 0.0
1.91750 6.91132 1.01188
1.91750 6.91132 2.02376
1.91750 6.91132 3.03565
1.91750 6.91132 4.04753
1.91750 6.91132 5.05941
1.91750 6.91132 6.07129
1.91750 6.91132 7.08317
1.91750 6.91132 8.09506
1.91750 6.91132 9.10694
1.91750 6.91132 10.1188
1.91750 6.91132 11.1307
1.91750 6.91132 12.1426
0.912892 6.91132 0.0
0.912892 6.91132 1.01188
0.912892 6.91132 2.02376
0.912892 6.91132 3.03565
0.912892 6.91132 4.04753
0.912892 6.91132 5.05941
0.912892 6.91132 6.07129
0.912892 6.91132 7.08317
0.912892 6.91132 8.09506
0.912892 6.91132 9.10694
0.912892 6.91132 10.1188
0.912892 6.91132 11.1307
0.912892 6.91132 12.1426
-0.0917157 6.91132 0.0
-0.0917157 6.91132 1.01188
-0.0917157 6.91132 2.02376
-0.0917157 6.91132 3.03565
-0.0917157 6.91132 4.04753
-0.0917157 6.91132 5.05941
-0.0917157 6.91132 6.07129
-0.0917157 6.91132 7.08317
-0.0917157 6.91132 8.09506
-0.0917157 6.91132 9.10694
-0.0917157 6.91132 10.1188
-0.0917157 6.91132 11.1307
-0.0917157 6.91132 12.1426
-1.09632 6.91132 0.0
-1.09632 6.91132 1.01188
-1.09632 6.91132 2.02376
-1.09632 6.91132 3.03565
-1.09632 6.91132 4.04753
-1.09632 6.91132 5.05941
-1.09632 6.91132 6.07129
-1.09632 6.91132 7.08317
-1.09632 6.91132 8.09506
-1.09632 6.91132 9.10694
-1.09632 6.91132 10.1188
-1.09632 6.91132 11.1307
-1.09632 6.91132 12.1426
-2.10093 6.91132 0.0
-2.10093 6.91132 1.01188
-2.10093 6.91132 2.02376
-2.10093 6.91132 3.03565
-2.10093 6.91132 4.04753
-2.10093 6.91132 5.05941
-2.10093 6.91132 6.07129
-2.10093 6.91132 7.08317
-2.10093 6.91132 8.09506
-2.10093 6.91132 9.10694
-2.10093 6.91132 10.1188
-2.10093 6.91132 11.1307
-2.10093 6.91132 12.1426
-3.10554 6.91132 0.0
-3.10554 6.91132 1.01188
-3.10554 6.91132 2.02376
-3.10554 6.91132 3.03565
-3.10554 6.91132 4.04753
-3.10554 6.91132 5.05941
-3.10554 6.91132 6.07129
-3.10554 6.91132 7.08317
-3.10554 6.91132 8.09506
-3.10554 6.91132 9.10694
-3.10554 6.91132 10.1188
-3.10554 6.91132 11.1307
-3.10554 6.91132 12.1426
-4.11015 6.91132 0.0
-4.11015 6.91132 1.01188
-4.11015 6.91132 2.02376
-4.11015 6.91132 3.03565
-4.11015 6.91132 4.04753
-4.11015 6.91132 5.05941
-4.11015 6.91132 6.07129
-4.11015 6.91132 7.08317
-4.11015 6.91132 8.09506
-4.11015 6.91132 9.10694
[...]
POINT_DATA 654
SCALARS Variable float
LOOKUP_TABLE Default
103.42
105.495
109.14
112.925
123.745
136.6
147.24
158.78
165.64
168.21
169.605
170.67
171.2
109.92
111.92
115.7575
122.54
133.0825
142.5975
151.47
160.42
165.7325
168.135
169.5675
170.52
171.125
120.865
122.8125
129.68
139.54
146.725
151.7425
157.6275
163.175
166.405
168.1625
169.395
170.3475
171.03
134.025
135.7525
142.425
149.17
152.9075
156.465
160.47
164.5625
167.0275
168.46
169.5575
170.455
170.93
145.235
146.8625
150.23
153.285
156.2475
159.4025
162.3575
164.98
167.0225
168.6
169.77
170.5475
170.865
148.855
150.4325
153.3925
155.99
158.2825
161.035
163.58
165.505
167.1725
168.3375
169.375
170.335
170.81
150.77
151.93
154.6
157.3475
159.2675
161.49
163.9875
165.955
167.4175
168.1725
169.0725
170.1925
170.715
151.125
152.1525
154.8575
157.6075
159.5725
161.5775
163.68
165.745
167.3825
168.3175
169.1875
170.165
170.645
150.915
152.2375
154.7
156.855
159.165
161.285
163.0775
165.4575
167.4825
168.505
169.295
170.135
170.595
149.97
151.365
153.77
155.705
157.705
159.9675
162.335
164.9925
167.3625
168.575
169.2825
170.235
170.8
147.575
148.595
150.8425
153.0575
154.885
157.205
160.4325
164.025
167.01
168.5175
169.4375
170.4825
170.975
146.35
147.125
148.84
151.07
153.225
155.565
159.135
163.515
166.96
168.475
169.605
170.66
170.94
51.55
52.495
54.265
56.24
58.795
62.04
67.355
76.435
83.985
86.925
88.45
89.355
89.73
53.125
54.185
56.3275
58.285
60.7875
64.3775
69.5875
77.5825
84.095
86.77
88.2325
89.2375
89.69
56.715
57.9325
60.3725
62.61
65.2975
68.965
73.6625
79.5975
84.2975
86.6325
88.13
89.1025
89.445
60.255
61.6225
64.2875
66.8275
69.615
72.925
76.85
81.2875
84.725
86.755
88.25
89.155
89.435
63.11
64.7
67.6
69.9525
72.42
75.64
79.0775
82.425
85.1025
86.8775
88.2075
89.155
89.575
65.805
67.215
69.755
72.1025
74.7325
77.6275
80.4475
83.1275
85.3675
86.9625
88.1525
89.0575
89.47
68.095
69.24
71.65
74.1425
76.835
79.24
81.485
83.8525
85.65
86.98
88.11
89.035
89.425
69.515
70.805
73.2925
75.6175
78.105
80.325
82.3225
84.35
85.89
87.0675
88.125
89.02
89.385
70.01
71.415
73.815
76.015
78.58
80.78
82.61
84.51
86.07
87.205
88.175
89.0
89.34
87.22
88.715
91.565
93.87
95.675
97.02
98.225
99.29
100.21
101.285
102.175
102.825
103.09
87.095
88.705
91.635
93.9425
95.7525
97.0625
98.265
99.32
100.2325
101.3075
102.195
102.8425
103.105
87.125
88.8375
91.7725
93.935
95.7425
97.145
98.315
99.46
100.37
101.265
102.1525
102.9075
103.27
87.24
89.0
91.835
93.8025
95.5925
97.1525
98.365
99.6025
100.5075
101.2025
102.05
102.9275
103.435
87.005
88.9375
91.9925
93.94
95.61
97.1875
98.43
99.62
100.6
101.2975
102.0325
102.85
103.33
87.205
89.11
92.3275
94.5325
96.1125
97.4175
98.505
99.6425
100.7
101.49
102.1775
102.9125
103.36
87.71
89.5525
92.69
95.0475
96.625
97.6425
98.6625
99.645
100.605
101.5925
102.32
103.04
103.525
87.86
89.8225
92.9625
95.0575
96.5425
97.695
98.83
99.6425
100.505
101.5725
102.3175
103.0375
103.48
88.13
90.1175
93.2225
95.1675
96.535
97.7375
98.935
99.7825
100.6225
101.57
102.32
103.0525
103.455
88.915
90.7775
93.66
95.51
96.8075
97.8625
99.0025
99.925
100.75
101.6225
102.4575
103.195
103.515
90.29
91.8925
94.22
95.655
96.91
97.9775
99.0725
100.0825
100.945
101.735
102.6
103.335
103.57
91.11
92.56
94.52
95.67
96.905
98.02
99.12
100.205
101.105
101.815
102.63
103.365
103.6
204.21
205.575
208.43
211.68
213.925
215.58
217.53
219.345
221.2
222.57
223.685
224.44
224.63
202.14
203.6725
206.8725
210.3125
212.95
214.905
217.29
219.57
221.2975
222.4875
223.445
224.31
224.665
197.425
199.185
202.775
206.3525
209.475
212.38
215.8875
219.15
221.17
222.34
223.2375
224.175
224.65
191.27
193.315
196.94
200.815
204.4925
208.4
213.4
217.805
220.5025
221.9225
223.1
224.14
224.655
182.84
184.975
188.8175
193.3025
197.9575
203.42
210.245
216.2775
219.955
221.6775
223.125
224.365
224.995
169.7
171.74
175.96
181.1425
187.1775
194.875
204.4175
213.7625
219.38
221.6775
223.2625
224.0725
224.445
140.165
142.01
146.4175
157.555
170.4525
180.8875
194.615
209.4175
218.2875
221.23
223.0825
223.9325
224.19
107.645
109.6775
114.2625
125.115
138.43
156.915
180.9775
202.97
217.11
220.83
222.8025
224.2025
224.61
96.44
98.895
103.62
108.67
116.405
141.235
173.145
199.18
216.555
220.77
222.645
224.065
224.45
277.04
276.965
276.875
276.795
277.025
277.25
277.235
277.22
277.15
276.905
276.9525
276.8875
276.9575
277.185
277.1575
277.1125
277.24
277.34
276.77
276.86
277.25
277.545
277.5
277.2125
277.03
277.235
277.375
276.635
276.675
277.4
277.69
277.435
277.3975
277.17
277.1925
277.265
277.0
276.8125
277.055
277.225
277.19
277.3975
277.29
277.2
277.2
277.37
277.2225
277.1025
277.14
277.245
277.4975
277.49
277.1975
277.07
277.38
277.4
277.1525
277.0575
277.4225
277.7725
277.735
277.28
277.02
277.385
277.335
276.9775
276.905
277.4725
277.635
277.53
277.2375
276.88
277.055
277.0775
276.85
276.8275
277.19
277.16
277.245
277.1225
276.75
276.73
277.0075
276.935
276.905
277.11
277.1075
277.345
277.305
277.14
277.13
277.3275
277.23
277.185
277.425
277.4525
277.25
277.17
277.33
277.66
277.535
277.345
277.28
277.585
277.65
277.04
276.89
277.11
