# vtk DataFile Version 2.0
My Test Plane
ASCII
DATASET POLYDATA
POINTS 10684 float
629.18017578125 488.5684509277344 103.75
629.18017578125 488.5684509277344 107.3000030517578
629.62255859375 488.6034851074219 104.1937484741211
629.62255859375 488.6034851074219 104.6374969482422
629.62255859375 488.6034851074219 105.0812530517578
629.62255859375 488.6034851074219 105.5250015258789
629.62255859375 488.6034851074219 105.96875
629.62255859375 488.6034851074219 106.4124984741211
629.62255859375 488.6034851074219 106.8562469482422
629.62255859375 488.6034851074219 107.3000030517578
630.06494140625 488.6385192871094 103.75
630.06494140625 488.6385192871094 104.1937484741211
630.06494140625 488.6385192871094 104.6374969482422
630.06494140625 488.6385192871094 105.0812530517578
630.06494140625 488.6385192871094 105.5250015258789
630.06494140625 488.6385192871094 105.96875
630.06494140625 488.6385192871094 106.4124984741211
630.06494140625 488.6385192871094 106.8562469482422
630.06494140625 488.6385192871094 107.3000030517578
630.5072631835938 488.6735534667969 104.1937484741211
630.5072631835938 488.6735534667969 104.6374969482422
630.5072631835938 488.6735534667969 105.0812530517578
630.5072631835938 488.6735534667969 105.5250015258789
630.5072631835938 488.6735534667969 105.96875
630.5072631835938 488.6735534667969 106.4124984741211
630.5072631835938 488.6735534667969 106.8562469482422
630.5072631835938 488.6735534667969 107.3000030517578
630.9496459960938 488.7085876464844 103.75
630.9496459960938 488.7085876464844 104.1937484741211
630.9496459960938 488.7085876464844 104.6374969482422
630.9496459960938 488.7085876464844 105.0812530517578
630.9496459960938 488.7085876464844 105.5250015258789
630.9496459960938 488.7085876464844 105.96875
630.9496459960938 488.7085876464844 106.4124984741211
630.9496459960938 488.7085876464844 106.8562469482422
630.9496459960938 488.7085876464844 107.3000030517578
631.3692016601563 488.7418212890625 104.1937484741211
631.3692016601563 488.7418212890625 104.6374969482422
631.3692016601563 488.7418212890625 105.0812530517578
631.3692016601563 488.7418212890625 105.5250015258789
631.3692016601563 488.7418212890625 105.96875
631.3692016601563 488.7418212890625 106.4124984741211
631.3692016601563 488.7418212890625 106.8562469482422
631.3692016601563 488.7418212890625 107.3000030517578
631.7886962890625 488.7750549316406 104.1937484741211
631.7886962890625 488.7750549316406 104.6374969482422
631.7886962890625 488.7750549316406 105.0812530517578
631.7886962890625 488.7750549316406 105.5250015258789
631.7886962890625 488.7750549316406 105.96875
631.7886962890625 488.7750549316406 106.4124984741211
631.7886962890625 488.7750549316406 106.8562469482422
631.7886962890625 488.7750549316406 107.3000030517578
632.2081909179688 488.8082885742188 103.75
632.2081909179688 488.8082885742188 104.1937484741211
632.2081909179688 488.8082885742188 104.6374969482422
632.2081909179688 488.8082885742188 105.0812530517578
632.2081909179688 488.8082885742188 105.5250015258789
632.2081909179688 488.8082885742188 105.96875
632.2081909179688 488.8082885742188 106.4124984741211
632.2081909179688 488.8082885742188 106.8562469482422
632.2081909179688 488.8082885742188 107.3000030517578
632.6277465820313 488.8414916992188 104.1937484741211
632.6277465820313 488.8414916992188 104.6374969482422
632.6277465820313 488.8414916992188 105.0812530517578
632.6277465820313 488.8414916992188 105.5250015258789
632.6277465820313 488.8414916992188 105.96875
632.6277465820313 488.8414916992188 106.4124984741211
632.6277465820313 488.8414916992188 106.8562469482422
632.6277465820313 488.8414916992188 107.3000030517578
633.0472412109375 488.8747253417969 104.1937484741211
633.0472412109375 488.8747253417969 104.6374969482422
633.0472412109375 488.8747253417969 105.0812530517578
633.0472412109375 488.8747253417969 105.5250015258789
633.0472412109375 488.8747253417969 105.96875
633.0472412109375 488.8747253417969 106.4124984741211
633.0472412109375 488.8747253417969 106.8562469482422
633.0472412109375 488.8747253417969 107.3000030517578
633.466796875 488.907958984375 103.75
633.466796875 488.907958984375 107.3000030517578
629.47509765625 488.5918273925781 103.75
629.77001953125 488.6151733398438 103.75
630.3598022460938 488.6618957519531 103.75
630.6547241210938 488.6852416992188 103.75
631.2642822265625 488.7335205078125 103.75
631.5789184570313 488.7584228515625 103.75
631.8935546875 488.7833557128906 103.75
632.5228271484375 488.8331909179688 103.75
632.8374633789063 488.8581237792969 103.75
633.152099609375 488.8830261230469 103.75
633.466796875 488.907958984375 104.0727310180664
633.466796875 488.907958984375 104.3954544067383
633.466796875 488.907958984375 104.7181854248047
633.466796875 488.907958984375 105.0409088134766
633.466796875 488.907958984375 105.363639831543
633.466796875 488.907958984375 105.6863632202148
633.466796875 488.907958984375 106.0090942382813
633.466796875 488.907958984375 106.3318176269531
633.466796875 488.907958984375 106.6545486450195
633.466796875 488.907958984375 106.9772720336914
629.18017578125 488.5684509277344 106.9772720336914
629.18017578125 488.5684509277344 106.6545486450195
629.18017578125 488.5684509277344 106.3318176269531
629.18017578125 488.5684509277344 106.0090942382813
629.18017578125 488.5684509277344 105.6863632202148
629.18017578125 488.5684509277344 105.363639831543
629.18017578125 488.5684509277344 105.0409088134766
629.18017578125 488.5684509277344 104.7181854248047
629.18017578125 488.5684509277344 104.3954544067383
629.18017578125 488.5684509277344 104.0727310180664
633.466796875 488.907958984375 103.75
633.466796875 488.907958984375 107.3000030517578
633.4999389648438 488.4892578125 104.1937484741211
633.4999389648438 488.4892578125 104.6374969482422
633.4999389648438 488.4892578125 105.0812530517578
633.4999389648438 488.4892578125 105.5250015258789
633.4999389648438 488.4892578125 105.96875
633.4999389648438 488.4892578125 106.4124984741211
633.4999389648438 488.4892578125 106.8562469482422
633.4999389648438 488.4892578125 107.3000030517578
633.5330810546875 488.0705871582031 104.1937484741211
633.5330810546875 488.0705871582031 104.6374969482422
633.5330810546875 488.0705871582031 105.0812530517578
633.5330810546875 488.0705871582031 105.5250015258789
633.5330810546875 488.0705871582031 105.96875
633.5330810546875 488.0705871582031 106.4124984741211
633.5330810546875 488.0705871582031 106.8562469482422
633.5330810546875 488.0705871582031 107.3000030517578
633.5662231445313 487.6518859863281 104.1937484741211
633.5662231445313 487.6518859863281 104.6374969482422
633.5662231445313 487.6518859863281 105.0812530517578
633.5662231445313 487.6518859863281 105.5250015258789
633.5662231445313 487.6518859863281 105.96875
633.5662231445313 487.6518859863281 106.4124984741211
633.5662231445313 487.6518859863281 106.8562469482422
633.5662231445313 487.6518859863281 107.3000030517578
633.5994262695313 487.2331848144531 104.1937484741211
633.5994262695313 487.2331848144531 104.6374969482422
633.5994262695313 487.2331848144531 105.0812530517578
633.5994262695313 487.2331848144531 105.5250015258789
633.5994262695313 487.2331848144531 105.96875
633.5994262695313 487.2331848144531 106.4124984741211
633.5994262695313 487.2331848144531 106.8562469482422
633.5994262695313 487.2331848144531 107.3000030517578
633.632568359375 486.8145141601563 107.3000030517578
633.490478515625 488.60888671875 103.75
633.51416015625 488.309814453125 103.75
633.537841796875 488.0107727050781 103.75
633.5615234375 487.7117004394531 103.75
633.585205078125 487.4126281738281 103.75
633.60888671875 487.1135864257813 103.75
633.466796875 488.907958984375 106.9772720336914
633.466796875 488.907958984375 106.6545486450195
633.466796875 488.907958984375 106.3318176269531
633.466796875 488.907958984375 106.0090942382813
633.466796875 488.907958984375 105.6863632202148
633.466796875 488.907958984375 105.363639831543
633.466796875 488.907958984375 105.0409088134766
633.466796875 488.907958984375 104.7181854248047
633.466796875 488.907958984375 104.3954544067383
633.466796875 488.907958984375 104.0727310180664
633.632568359375 486.8145141601563 103.75
633.632568359375 486.8145141601563 104.0727310180664
633.632568359375 486.8145141601563 104.3954544067383
633.632568359375 486.8145141601563 104.7181854248047
633.632568359375 486.8145141601563 105.0409088134766
633.632568359375 486.8145141601563 105.363639831543
633.632568359375 486.8145141601563 105.6863632202148
633.632568359375 486.8145141601563 106.0090942382813
633.632568359375 486.8145141601563 106.3318176269531
633.632568359375 486.8145141601563 106.6545486450195
633.632568359375 486.8145141601563 106.9772720336914
633.632568359375 486.8145141601563 103.75
633.632568359375 486.8145141601563 107.3000030517578
634.1217651367188 486.8532409667969 104.1937484741211
634.1217651367188 486.8532409667969 104.6374969482422
634.1217651367188 486.8532409667969 105.0812530517578
634.1217651367188 486.8532409667969 105.5250015258789
634.1217651367188 486.8532409667969 105.96875
634.1217651367188 486.8532409667969 106.4124984741211
634.1217651367188 486.8532409667969 106.8562469482422
634.1217651367188 486.8532409667969 107.3000030517578
634.6109619140625 486.8919982910156 104.1937484741211
634.6109619140625 486.8919982910156 104.6374969482422
634.6109619140625 486.8919982910156 105.0812530517578
634.6109619140625 486.8919982910156 105.5250015258789
634.6109619140625 486.8919982910156 105.96875
634.6109619140625 486.8919982910156 106.4124984741211
634.6109619140625 486.8919982910156 106.8562469482422
634.6109619140625 486.8919982910156 107.3000030517578
635.1001586914063 486.9307250976563 104.1937484741211
635.1001586914063 486.9307250976563 104.6374969482422
635.1001586914063 486.9307250976563 105.0812530517578
635.1001586914063 486.9307250976563 105.5250015258789
635.1001586914063 486.9307250976563 105.96875
635.1001586914063 486.9307250976563 106.4124984741211
[...]
POINT_DATA 10684
SCALARS Irradiance float
LOOKUP_TABLE Default
